Getting the Right Output Means no Artefacts in Calculating Stuff
   20
    12EP    CAA    1   2.385  -2.399  -0.031
    12EP    CAG    2   2.354  -2.397  -0.180
    12EP    OAH    3   2.227  -2.466  -0.201
    12EP    CAJ    4   2.226  -2.545  -0.312
    12EP    CAF    5   2.294  -2.509  -0.428
    12EP    CAD    6   2.291  -2.593  -0.539
    12EP    CAC    7   2.218  -2.712  -0.535
    12EP    CAE    8   2.148  -2.748  -0.419
    12EP    CAI    9   2.152  -2.664  -0.307
    12EP    OAB   10   2.084  -2.698  -0.194
    12EP     H1   11   2.478  -2.349  -0.013
    12EP     H2   12   2.392  -2.500   0.003
    12EP     H3   13   2.307  -2.349   0.023
    12EP     H4   14   2.346  -2.296  -0.214
    12EP     H5   15   2.432  -2.446  -0.235
    12EP     H6   16   2.347  -2.420  -0.431
    12EP     H7   17   2.342  -2.568  -0.625
    12EP     H8   18   2.215  -2.774  -0.618
    12EP     H9   19   2.094  -2.836  -0.416
    12EP    H10   20   2.035  -2.778  -0.191
   0.00000   0.00000   0.00000
