; Created by cgenff_charmm2gmx.py

[ moleculetype ]
; Name			   nrexcl
2EP.pdb				 3

[ atoms ]
;	 nr		  type	resnr residue  atom   cgnr	   charge		mass  typeB    chargeB		massB
; residue	 1 2EP.pdb rtp 2EP.pdb q	qsum
     1      CG331      1 2EP.pdb    CAA      1     -0.270     12.011   ;
     2      CG321      1 2EP.pdb    CAG      2     -0.008     12.011   ;
     3      OG301      1 2EP.pdb    OAH      3     -0.388     15.999   ;
     4     CG2R61      1 2EP.pdb    CAJ      4      0.229     12.011   ;
     5     CG2R61      1 2EP.pdb    CAF      5     -0.117     12.011   ;
     6     CG2R61      1 2EP.pdb    CAD      6     -0.113     12.011   ;
     7     CG2R61      1 2EP.pdb    CAC      7     -0.114     12.011   ;
     8     CG2R61      1 2EP.pdb    CAE      8     -0.114     12.011   ;
     9     CG2R61      1 2EP.pdb    CAI      9      0.109     12.011   ;
    10      OG311      1 2EP.pdb    OAB     10     -0.549     15.999   ;
    11       HGA3      1 2EP.pdb     H1     11      0.090      1.008   ;
    12       HGA3      1 2EP.pdb     H2     12      0.090      1.008   ;
    13       HGA3      1 2EP.pdb     H3     13      0.090      1.008   ;
    14       HGA2      1 2EP.pdb     H4     14      0.090      1.008   ;
    15       HGA2      1 2EP.pdb     H5     15      0.090      1.008   ;
    16      HGR61      1 2EP.pdb     H6     16      0.116      1.008   ;
    17      HGR61      1 2EP.pdb     H7     17      0.116      1.008   ;
    18      HGR61      1 2EP.pdb     H8     18      0.116      1.008   ;
    19      HGR61      1 2EP.pdb     H9     19      0.116      1.008   ;
    20       HGP1      1 2EP.pdb    H10     20      0.421      1.008   ;

[ bonds ]
;	ai	  aj funct			  c0			c1			  c2			c3
    1     2	 1 ;       CG331      CG321
    1    11	 1 ;       CG331       HGA3
    1    12	 1 ;       CG331       HGA3
    1    13	 1 ;       CG331       HGA3
    2     3	 1 ;       CG321      OG301
    2    14	 1 ;       CG321       HGA2
    2    15	 1 ;       CG321       HGA2
    3     4	 1 ;       OG301     CG2R61
    4     5	 1 ;      CG2R61     CG2R61
    4     9	 1 ;      CG2R61     CG2R61
    5     6	 1 ;      CG2R61     CG2R61
    5    16	 1 ;      CG2R61      HGR61
    6     7	 1 ;      CG2R61     CG2R61
    6    17	 1 ;      CG2R61      HGR61
    7     8	 1 ;      CG2R61     CG2R61
    7    18	 1 ;      CG2R61      HGR61
    8     9	 1 ;      CG2R61     CG2R61
    8    19	 1 ;      CG2R61      HGR61
    9    10	 1 ;      CG2R61      OG311
   10    20	 1 ;       OG311       HGP1

[ pairs ]
;	ai	  aj funct			  c0			c1			  c2			c3
    1     4	 1
    2     5	 1
    2     9	 1
    3    11	 1
    3    12	 1
    3    13	 1
    3     6	 1
    3    16	 1
    3     8	 1
    3    10	 1
    4    14	 1
    4    15	 1
    4     7	 1
    4    17	 1
    4    19	 1
    4    20	 1
    5     8	 1
    5    10	 1
    5    18	 1
    6     9	 1
    6    19	 1
    7    16	 1
    7    10	 1
    8    17	 1
    8    20	 1
    9    16	 1
    9    18	 1
   10    19	 1
   11    14	 1
   11    15	 1
   12    14	 1
   12    15	 1
   13    14	 1
   13    15	 1
   16    17	 1
   17    18	 1
   18    19	 1

[ angles ]
;	ai	  aj	ak funct			c0			  c1			c2			  c3
    2     1    11	5 ;      CG321      CG331       HGA3
    2     1    12	5 ;      CG321      CG331       HGA3
    2     1    13	5 ;      CG321      CG331       HGA3
   11     1    12	5 ;       HGA3      CG331       HGA3
   11     1    13	5 ;       HGA3      CG331       HGA3
   12     1    13	5 ;       HGA3      CG331       HGA3
    3     2     1	5 ;      OG301      CG321      CG331
    3     2    14	5 ;      OG301      CG321       HGA2
    3     2    15	5 ;      OG301      CG321       HGA2
    1     2    14	5 ;      CG331      CG321       HGA2
    1     2    15	5 ;      CG331      CG321       HGA2
   14     2    15	5 ;       HGA2      CG321       HGA2
    4     3     2	5 ;     CG2R61      OG301      CG321
    5     4     9	5 ;     CG2R61     CG2R61     CG2R61
    5     4     3	5 ;     CG2R61     CG2R61      OG301
    9     4     3	5 ;     CG2R61     CG2R61      OG301
    6     5     4	5 ;     CG2R61     CG2R61     CG2R61
    6     5    16	5 ;     CG2R61     CG2R61      HGR61
    4     5    16	5 ;     CG2R61     CG2R61      HGR61
    7     6     5	5 ;     CG2R61     CG2R61     CG2R61
    7     6    17	5 ;     CG2R61     CG2R61      HGR61
    5     6    17	5 ;     CG2R61     CG2R61      HGR61
    6     7     8	5 ;     CG2R61     CG2R61     CG2R61
    6     7    18	5 ;     CG2R61     CG2R61      HGR61
    8     7    18	5 ;     CG2R61     CG2R61      HGR61
    7     8     9	5 ;     CG2R61     CG2R61     CG2R61
    7     8    19	5 ;     CG2R61     CG2R61      HGR61
    9     8    19	5 ;     CG2R61     CG2R61      HGR61
    8     9     4	5 ;     CG2R61     CG2R61     CG2R61
    8     9    10	5 ;     CG2R61     CG2R61      OG311
    4     9    10	5 ;     CG2R61     CG2R61      OG311
    9    10    20	5 ;     CG2R61      OG311       HGP1

[ dihedrals ]
;	ai	  aj	ak	  al funct			  c0			c1			  c2			c3			  c4			c5
   11     1     2     3	 9 ;       HGA3      CG331      CG321      OG301
   11     1     2    14	 9 ;       HGA3      CG331      CG321       HGA2
   11     1     2    15	 9 ;       HGA3      CG331      CG321       HGA2
   12     1     2     3	 9 ;       HGA3      CG331      CG321      OG301
   12     1     2    14	 9 ;       HGA3      CG331      CG321       HGA2
   12     1     2    15	 9 ;       HGA3      CG331      CG321       HGA2
   13     1     2     3	 9 ;       HGA3      CG331      CG321      OG301
   13     1     2    14	 9 ;       HGA3      CG331      CG321       HGA2
   13     1     2    15	 9 ;       HGA3      CG331      CG321       HGA2
    1     2     3     4	 9 ;      CG331      CG321      OG301     CG2R61
   14     2     3     4	 9 ;       HGA2      CG321      OG301     CG2R61
   15     2     3     4	 9 ;       HGA2      CG321      OG301     CG2R61
    2     3     4     5	 9 ;      CG321      OG301     CG2R61     CG2R61
    2     3     4     9	 9 ;      CG321      OG301     CG2R61     CG2R61
    9     4     5     6	 9 ;     CG2R61     CG2R61     CG2R61     CG2R61
    9     4     5    16	 9 ;     CG2R61     CG2R61     CG2R61      HGR61
    3     4     5     6	 9 ;      OG301     CG2R61     CG2R61     CG2R61
    3     4     5    16	 9 ;      OG301     CG2R61     CG2R61      HGR61
    5     4     9     8	 9 ;     CG2R61     CG2R61     CG2R61     CG2R61
    5     4     9    10	 9 ;     CG2R61     CG2R61     CG2R61      OG311
    3     4     9     8	 9 ;      OG301     CG2R61     CG2R61     CG2R61
    3     4     9    10	 9 ;      OG301     CG2R61     CG2R61      OG311
    4     5     6     7	 9 ;     CG2R61     CG2R61     CG2R61     CG2R61
    4     5     6    17	 9 ;     CG2R61     CG2R61     CG2R61      HGR61
   16     5     6     7	 9 ;      HGR61     CG2R61     CG2R61     CG2R61
   16     5     6    17	 9 ;      HGR61     CG2R61     CG2R61      HGR61
    5     6     7     8	 9 ;     CG2R61     CG2R61     CG2R61     CG2R61
    5     6     7    18	 9 ;     CG2R61     CG2R61     CG2R61      HGR61
   17     6     7     8	 9 ;      HGR61     CG2R61     CG2R61     CG2R61
   17     6     7    18	 9 ;      HGR61     CG2R61     CG2R61      HGR61
    6     7     8     9	 9 ;     CG2R61     CG2R61     CG2R61     CG2R61
    6     7     8    19	 9 ;     CG2R61     CG2R61     CG2R61      HGR61
   18     7     8     9	 9 ;      HGR61     CG2R61     CG2R61     CG2R61
   18     7     8    19	 9 ;      HGR61     CG2R61     CG2R61      HGR61
    7     8     9     4	 9 ;     CG2R61     CG2R61     CG2R61     CG2R61
    7     8     9    10	 9 ;     CG2R61     CG2R61     CG2R61      OG311
   19     8     9     4	 9 ;      HGR61     CG2R61     CG2R61     CG2R61
   19     8     9    10	 9 ;      HGR61     CG2R61     CG2R61      OG311
    8     9    10    20	 9 ;     CG2R61     CG2R61      OG311       HGP1
    4     9    10    20	 9 ;     CG2R61     CG2R61      OG311       HGP1

